# vtk DataFile Version 2.0
"blockTopology.obj"
ASCII
DATASET POLYDATA
POINTS 16 float
-1.1547 -1.1547 -1.1547
1.1547 -1.1547 -1.1547
-1.1547 1.1547 -1.1547
1.1547 1.1547 -1.1547
-1.1547 -1.1547 1.1547
1.1547 -1.1547 1.1547
-1.1547 1.1547 1.1547
1.1547 1.1547 1.1547
-5 -5 -5
5 -5 -5
-5 5 -5
5 5 -5
-5 -5 5
5 -5 5
-5 5 5
5 5 5
VERTICES 16 32
1 0
1 1
1 2
1 3
1 4
1 5
1 6
1 7
1 8
1 9
1 10
1 11
1 12
1 13
1 14
1 15
LINES 32 96
2 0 8
2 1 9
2 2 10
2 3 11
2 4 12
2 5 13
2 6 14
2 7 15
2 0 1
2 0 2
2 0 4
2 1 3
2 1 5
2 2 3
2 2 6
2 3 7
2 4 5
2 4 6
2 5 7
2 6 7
2 8 9
2 8 10
2 8 12
2 9 11
2 9 13
2 10 11
2 10 14
2 11 15
2 12 13
2 12 14
2 13 15
2 14 15
POLYGONS 0 0
POINT_DATA 16
SCALARS pointID float 1
LOOKUP_TABLE default
0 1
2 3 4 5 6 7 8 9 10 11
12 13 14 15 